ITEM: TIMESTEP
0
ITEM: NUMBER OF ATOMS
800
ITEM: BOX BOUNDS pp pp pp
0.0000000000000000e+00 3.2000000000000000e+01
0.0000000000000000e+00 3.2000000000000000e+01
0.0000000000000000e+00 3.2000000000000000e+01
ITEM: ATOMS id type xs ys zs vx vy vz fx fy fz 
699 1 0.0216345 0.0964482 0.056178 0.0131096 -0.00920561 0.000462091 18.2752 -6.3214 2.70493 
266 1 0.00643001 0.0085083 0.0156775 0.0109528 0.0113228 0.000996331 17.1603 -9.48456 0.888464 
28 1 0.135878 0.00179151 0.0669533 0.0114769 0.00502482 0.0051279 0.714429 6.64962 -0.147787 
184 1 0.234571 0.0745405 0.0336327 -0.00868846 -0.00990099 -0.00416334 -1.43124 -11.7335 -5.32694 
340 1 0.332482 0.0399716 0.0898094 0.000301197 0.00494605 0.013619 4.95381 -9.92922 -4.95897 
464 1 0.315335 0.0567983 0.0124861 -0.00861089 0.00327836 0.0174131 2.58827 -0.34375 -3.59616 
339 1 0.495277 0.0985967 0.0765246 0.00934842 -0.00185572 -0.00200973 5.86927 2.36953 4.41333 
182 1 0.461225 0.0478197 0.0269705 -0.00646736 0.00674261 0.00162376 0.160532 3.50443 1.93818 
447 1 0.650851 0.0291208 0.0673659 0.00142801 -0.00571683 0.00456986 0.333967 0.459575 2.19734 
383 1 0.825312 0.0640158 0.0886133 -0.00993153 0.00308167 0.000457442 4.60598 0.849655 6.60465 
749 1 0.922094 0.0603765 0.0160878 0.00636871 -0.00904129 -0.00478572 -15.3816 6.87894 -8.34025 
26 1 0.926719 0.0197685 0.0828102 -0.0183373 -0.00186233 -0.00461423 -6.30429 3.06671 15.3512 
772 1 0.111673 0.178759 0.0259597 -0.000173285 0.0106855 -0.00716072 6.10832 -3.27306 -6.13806 
414 1 0.238718 0.134656 0.0788261 0.00947925 -0.00522306 0.0104412 -0.166296 9.39072 7.99462 
513 1 0.22787 0.188673 0.00320496 0.00638506 0.000396353 -0.00318963 1.21409 -0.613601 -1.37371 
489 1 0.352264 0.170153 0.0939247 -0.00605924 0.00158312 -0.0154488 -10.8455 -1.91619 -6.42752 
656 1 0.448259 0.191922 0.0359232 0.00844513 0.00617071 -0.00824498 3.6863 6.7754 -8.06331 
648 1 0.670513 0.159245 0.0205564 -0.0049375 0.000745331 -0.00038322 -0.13498 -6.95297 3.14685 
232 1 0.716723 0.133636 0.0935821 0.00459466 -0.00635616 0.00158766 4.43459 7.06231 -1.4388 
595 1 0.993009 0.16579 0.0506893 -0.00351585 -0.00189969 -0.000946197 -3.31826 27.6282 -3.07583 
171 1 0.0709759 0.238063 0.0643604 0.0152747 0.00756706 -0.00627904 -5.86227 5.68276 4.20272 
412 1 0.168577 0.257366 0.00940329 -0.00420462 0.000701241 -0.0102446 -1.06534 -0.961713 2.41682 
378 1 0.26341 0.290733 0.035165 -0.0105872 0.00700928 -0.00527206 -11.1877 -5.92924 0.59215 
569 1 0.531395 0.205883 0.0536838 0.00620999 0.00212368 -0.0221318 -1.40725 -1.46119 -5.35118 
540 1 0.52276 0.287229 0.0082203 -0.00724489 0.00574052 -0.0018879 6.60372 5.29511 10.9127 
391 1 0.698327 0.254031 0.0709744 0.00327002 -0.00576357 -0.00101249 -7.2508 -6.66338 -3.27043 
440 1 0.61169 0.278074 0.050403 -0.00218873 0.00997038 -0.00136659 3.94459 1.46155 -1.70196 
75 1 0.790751 0.207554 0.0601113 0.00141918 0.00280874 0.00250624 -2.21695 -0.757204 4.82372 
620 1 0.774023 0.293271 0.0329659 -0.00130463 -0.00126348 -0.000576313 4.12942 -1.74311 -11.5469 
293 1 0.860774 0.249489 0.0969525 0.00513693 0.00478641 0.00152211 0.448765 1.24458 3.53191 
351 1 0.888828 0.260536 0.0179705 0.00788157 -0.00183064 -0.000933154 -1.60328 5.36759 -2.90363 
157 1 0.0580866 0.325319 0.0494852 0.00992576 -0.00726997 -0.00169762 1.7798 -4.97697 -3.464 
40 1 0.135815 0.36784 0.0181643 0.00424488 0.00323481 -0.00300332 4.80731 0.242471 3.64303 
380 1 0.201286 0.345504 0.0842941 -0.00690148 0.00455071 -0.00895226 0.239558 0.892337 -0.692159 
438 1 0.321986 0.337151 0.0514764 0.00338514 -0.00536907 0.000573285 7.9377 3.06408 0.0974113 
653 1 0.46048 0.356092 0.0448007 0.00146885 -0.000348955 0.00202557 -6.07829 -6.01703 -14.3031 
731 1 0.800218 0.381234 0.0810507 -0.00507838 -0.00321917 0.00963419 0.668325 8.93044 -2.57441 
506 1 0.149803 0.446559 0.0929579 -0.000489964 -0.00194765 0.00163581 -8.89658 -4.7273 0.494057 
621 1 0.229007 0.450008 0.0803202 -0.000159151 -0.000720144 -0.0128806 5.78106 -6.25117 -3.55882 
496 1 0.37915 0.404972 0.0622733 -0.00257731 -0.00444031 -0.00949721 -2.88557 3.73238 -2.47077 
222 1 0.330818 0.486923 0.0467278 -0.020397 0.00249649 0.0021236 1.27652 3.10211 0.643945 
753 1 0.509224 0.421611 0.0269404 0.0043126 0.00242993 0.00769196 3.28528 4.90424 0.23993 
136 1 0.835454 0.45857 0.0272922 0.0118857 0.00299087 -0.00615098 -0.678452 -6.30957 4.51262 
185 1 0.0435192 0.0316818 0.134225 0.00077088 0.00221576 0.0010061 9.01725 -1.90328 4.55502 
150 1 0.15133 0.0860473 0.102516 -0.00764694 0.00545179 -0.00242054 9.70401 -5.6933 5.12904 
775 1 0.286194 0.0341692 0.198723 0.00285777 0.00517433 0.00222874 -0.167981 -6.43541 10.2809 
308 1 0.212447 0.0199803 0.135267 -0.00783398 0.00572592 0.0123902 -0.305047 2.44482 -5.18035 
727 1 0.301134 0.0874776 0.144088 0.00165385 0.00544676 -0.00669141 -4.17747 9.28044 -7.83146 
71 1 0.675993 0.0842543 0.147891 0.0123425 0.00451431 -0.00725831 -5.04428 -0.141686 2.14632 
382 1 0.872107 0.0558849 0.174349 -0.00253217 -0.00177772 -0.0108433 0.359502 -6.32636 -3.09029 
119 1 0.980467 0.0971522 0.123842 0.000638944 0.00156519 -0.000617288 -7.62585 -13.5819 5.65547 
132 1 0.0949812 0.135042 0.101659 -0.00983936 -0.00126076 0.00480891 -7.95272 -1.51808 -2.58662 
697 1 0.0157029 0.143009 0.184684 -0.000391819 0.00625074 5.46538e-05 9.24522 1.64819 3.75283 
561 1 0.107592 0.198667 0.151096 0.0075461 -0.000292135 0.000104284 -5.83612 2.62554 0.899716 
57 1 0.308373 0.177228 0.177346 -0.00689381 -0.00351514 0.00530656 -6.63652 -1.9723 -4.96595 
448 1 0.433539 0.157017 0.103193 -0.00992564 0.0082344 -0.00687476 2.43292 -11.8594 -5.99417 
628 1 0.422375 0.172565 0.175287 0.00591823 0.0042624 -0.00176487 7.12244 4.83053 22.8079 
190 1 0.596609 0.125076 0.124848 0.000256383 0.00246883 -0.000632909 -1.5237 -2.5792 4.8941 
768 1 0.526738 0.177296 0.139544 -0.00348135 -0.00417141 0.0123979 1.7695 2.61917 2.22705 
605 1 0.936232 0.170332 0.148044 0.00225503 -0.00228031 0.00471184 -7.44495 7.90614 2.93708 
273 1 0.000898829 0.232513 0.130358 0.00120723 0.00300103 0.00161358 5.97709 -6.9761 1.61722 
290 1 0.271392 0.283505 0.140588 0.000790089 -0.000369246 -0.00464106 -6.26164 4.42497 -3.36422 
609 1 0.231089 0.210998 0.138988 -0.000688105 -0.00750956 -0.00268269 0.85492 -6.07425 1.46674 
583 1 0.371718 0.246311 0.147162 -0.0103024 0.00269134 0.000790002 3.19506 7.45914 0.545937 
90 1 0.537973 0.278065 0.112503 0.00714297 0.00405039 6.18914e-05 -0.553047 1.58574 4.82704 
584 1 0.76704 0.203339 0.157792 -0.00159148 -0.010843 0.00430729 -6.16835 -3.11113 -3.04418 
418 1 0.838357 0.243154 0.182713 -0.00200547 0.014058 0.00605586 0.739553 3.24803 2.69057 
521 1 0.952932 0.286057 0.104819 0.00179 0.00191079 0.00209282 -7.18634 3.85387 -1.31785 
196 1 0.0956694 0.364386 0.118517 0.00484289 -0.00346494 -0.000759918 6.26188 3.26838 5.40436 
142 1 0.262411 0.372302 0.187536 -0.00822563 0.00519143 -0.000611112 -1.24663 -2.12155 -0.277311 
636 1 0.341582 0.332453 0.134188 0.0103249 -0.0110941 0.000461069 6.23391 1.55308 2.35614 
176 1 0.449777 0.313743 0.107226 0.00312509 0.00234805 -0.00401381 -4.90614 -6.89436 14.6981 
658 1 0.437373 0.355413 0.195389 -0.000602954 0.00555722 0.000478751 -0.626559 -7.0661 -3.34556 
796 1 0.538361 0.372547 0.105776 0.00321368 0.00186505 0.00616466 6.60179 2.66631 5.98241 
763 1 0.66117 0.318648 0.166871 0.00672201 -0.00402263 -0.0061734 0.851966 -0.227101 2.03108 
127 1 0.623909 0.393027 0.108713 0.00467635 -0.00243829 -0.0225327 1.36679 -2.63947 -1.36916 
659 1 0.751658 0.38658 0.180612 0.00828224 -0.00598974 -0.00721713 -3.02452 12.5612 -4.13078 
74 1 0.755318 0.302475 0.196481 -0.00585948 -0.00414607 0.00623987 0.222141 -10.6669 -0.11345 
279 1 0.736043 0.329667 0.101097 0.00241225 -0.00810996 -0.0141713 -6.3005 2.7465 4.77556 
217 1 0.86009 0.341788 0.110215 0.0061533 0.0024581 -0.00204756 5.32235 -5.13926 6.28632 
337 1 0.997924 0.355753 0.106641 -0.0122811 0.000308187 0.000251197 -1.56885 5.0799 1.1264 
431 1 0.954187 0.339269 0.19607 0.00422976 -0.000210274 0.00231814 -2.13308 -0.808005 1.09868 
467 1 0.105695 0.454909 0.174592 -0.00663584 0.00319398 -0.00924963 -2.59042 -2.12201 2.39955 
745 1 0.316922 0.442584 0.196294 -0.00593927 0.00935018 0.000586864 0.355202 -2.09319 4.35477 
529 1 0.444709 0.438971 0.102952 -0.0151745 0.00998509 0.0092154 5.82219 7.72315 9.16951 
723 1 0.600292 0.473047 0.116003 -0.0060983 0.0077456 -0.00633046 0.446645 2.37487 -0.0475424 
224 1 0.78868 0.484334 0.194269 -8.4209e-05 -6.81302e-05 0.00234703 -0.550223 -11.8266 4.06513 
615 1 0.852767 0.467401 0.1237 -0.00278386 -0.00352777 0.0163098 1.34371 2.44462 -2.34352 
121 1 0.998506 0.432053 0.160277 -0.00209535 0.00551291 -0.00643981 1.91369 3.35347 -4.62508 
476 1 0.0461289 0.0158206 0.280887 -0.00577753 -0.006275 -0.000894269 -0.699002 2.60483 -11.4327 
706 1 0.130661 0.0732989 0.201844 -0.000559311 0.00223081 -0.0170904 0.145047 0.656372 -6.006 
264 1 0.150489 0.00781666 0.29089 0.00199403 0.000283442 0.00415137 2.05593 -0.204105 6.01976 
678 1 0.733385 0.0168136 0.247712 -0.00839193 -0.000370406 -0.00463743 2.5 -1.72184 -1.2583 
321 1 0.845462 0.0659411 0.258991 0.000257545 0.0109976 0.0028447 1.85401 -1.74738 -4.74964 
473 1 0.950417 0.0342993 0.249597 0.0127702 -0.00504027 -0.00265643 -15.0935 3.99797 2.07627 
2 1 0.112989 0.1393 0.26152 -0.00558601 -0.00385235 -0.0153145 2.79144 -2.93738 -2.49576 
259 1 0.343053 0.102651 0.236329 0.0082158 -0.00374907 -0.00609287 -1.16835 -5.42109 4.15815 
377 1 0.384719 0.155594 0.289563 0.00702588 -0.00378534 0.00631465 6.19147 0.559726 4.51539 
686 1 0.555898 0.10046 0.223294 0.0060544 0.0137552 -0.00141389 3.11072 1.97206 0.137408 
278 1 0.517419 0.179521 0.2292 -0.00866305 -0.000688377 0.00486484 -2.74682 -2.28762 -1.56118 
216 1 0.637402 0.148473 0.232622 -0.00661483 -0.0227586 -0.00431846 -14.005 -9.92927 -1.14119 
759 1 0.799993 0.184241 0.285307 0.0033061 -0.00042545 -0.0141069 -0.763516 -3.74033 0.777434 
13 1 0.716172 0.15067 0.228504 0.00595946 0.00295767 0.00136144 21.3474 -3.56413 -4.52169 
675 1 0.8762 0.175054 0.23114 0.00736114 -0.00592015 0.00279665 1.08796 2.62665 0.902472 
576 1 0.984137 0.104635 0.254535 -0.00699999 -0.00598848 -0.00542938 5.19452 5.3254 1.85552 
101 1 0.332629 0.213171 0.245137 0.0120471 0.00975421 0.00114314 1.1858 -9.27514 2.44087 
39 1 0.329849 0.283354 0.25805 0.0098819 0.00386248 0.00416132 3.02499 17.9111 7.74799 
778 1 0.426245 0.265611 0.229829 -0.00282618 0.000704212 -0.00652956 -1.20048 2.75359 -1.92056 
566 1 0.488571 0.237088 0.289861 0.00863824 -0.00992478 0.00925853 8.34724 8.37841 -6.41565 
517 1 0.668109 0.224027 0.227921 0.0137041 0.00957395 0.00516457 0.0953393 20.7795 -2.97337 
557 1 0.949525 0.244726 0.235731 -0.00172484 0.00998107 0.00608762 -1.33875 -0.41179 -0.108042 
705 1 0.0870468 0.358574 0.211421 -0.000476634 -0.0118075 -0.000635982 -4.35175 3.77234 -1.91389 
581 1 0.166171 0.377724 0.230231 -0.00720196 -0.0136498 0.00632857 -0.413989 3.12073 -4.61176 
607 1 0.253468 0.324751 0.263263 0.00279662 -0.000532811 0.00073856 2.36332 -1.08447 -2.55432 
485 1 0.488402 0.332617 0.299228 0.000534991 -0.00571966 0.000471887 1.77755 -0.538911 -8.86519 
700 1 0.549943 0.366395 0.223577 0.00273008 -0.00127408 0.0148491 -4.9087 1.60198 3.62616 
325 1 0.633437 0.385191 0.263189 -0.000551319 0.012389 0.0014178 -9.81233 -10.165 6.15454 
143 1 0.670085 0.305114 0.282507 0.000498056 0.00274086 0.00224574 -6.17999 -8.34623 -12.7107 
61 1 0.763725 0.37125 0.263479 -0.000928244 0.0157635 0.0049464 -12.2425 8.4505 2.42337 
323 1 0.863206 0.343899 0.202976 0.00471229 0.0122313 -0.007401 -0.235611 -3.49439 -4.29941 
22 1 0.991321 0.322048 0.283213 0.00241081 0.0120601 -3.47114e-05 -4.65097 -0.600955 -13.8539 
70 1 0.00786615 0.423392 0.239952 -0.0103496 -0.00261644 -0.00191595 4.84489 -4.06424 5.91904 
550 1 0.126691 0.485661 0.266874 -0.000469737 0.00277327 0.0138551 -3.27587 -0.154123 2.01353 
555 1 0.214916 0.489418 0.26072 -0.00753307 -0.000262413 -0.00746581 -4.20968 -2.43435 5.30417 
634 1 0.300486 0.488349 0.290793 0.00293079 -0.00535547 -0.00899369 4.26027 -5.28676 -0.437723 
376 1 0.479472 0.429435 0.204004 -0.00198654 -0.00100286 -0.00663563 -1.25199 -0.0576659 0.350648 
497 1 0.440606 0.442782 0.293096 -0.00432085 -0.000853442 0.0062633 3.6076 -0.966238 -5.35509 
275 1 0.660184 0.416644 0.202291 -0.0134912 -0.00723798 0.00792544 7.48436 -1.46608 -16.0402 
725 1 0.670938 0.491219 0.228708 -0.00219376 0.00313005 -0.00664242 4.70863 6.56907 3.78146 
720 1 0.786834 0.497389 0.287353 0.00187748 -0.0230124 0.0108116 10.9773 6.1869 -6.29086 
100 1 0.8409 0.418819 0.249563 0.00754632 -0.000198669 0.0119496 3.51727 3.04267 -5.91002 
120 1 0.925873 0.442967 0.2647 0.00123421 0.00362003 -0.00256193 -0.135361 2.57166 -1.40871 
416 1 0.0292585 0.012468 0.356946 -0.00235052 -0.00252405 -0.00237058 -0.22613 -1.46638 10.0713 
626 1 0.0571415 0.0928221 0.392359 -0.00218805 0.0131369 -0.00615908 3.10847 -9.7283 -4.25813 
294 1 0.154839 0.0996418 0.346344 0.00912603 -0.00539142 0.00193447 2.20439 -4.25696 -2.93753 
334 1 0.213057 0.00122524 0.375026 0.0184387 -0.00589629 0.00681835 -5.87854 1.64509 0.866807 
202 1 0.275629 0.05971 0.309913 0.00200822 -0.0131664 0.00723979 4.378 1.18918 -3.53084 
64 1 0.304063 0.0140188 0.383426 -0.00374645 -0.0127906 -0.00509607 -3.19641 2.74826 -1.03736 
453 1 0.472123 0.055261 0.381378 -0.0049013 -0.00127685 0.00879041 4.87652 -0.0851042 0.0317084 
107 1 0.582126 0.076431 0.305982 0.00329493 0.00494919 -0.00939858 -2.12107 0.0567572 3.15849 
284 1 0.680816 0.0446006 0.350878 0.00324498 -0.00804846 0.00100907 0.698942 1.19737 -0.846825 
676 1 0.772056 0.0211925 0.323256 -0.00347343 -0.00283733 0.00738789 -3.58594 -1.73628 0.29178 
450 1 0.0517004 0.126862 0.321256 -0.000681587 0.0197174 -0.0115712 -3.56705 1.0454 -5.26028 
282 1 0.121501 0.191346 0.353736 0.00438178 -0.00148032 -0.00555943 -4.51317 1.04269 1.95316 
600 1 0.276697 0.126311 0.396039 -0.000640999 0.00267648 0.00099236 6.30473 -8.2408 -0.60481 
199 1 0.223008 0.163797 0.355446 -0.00103883 -0.0100643 0.00515064 -6.48274 1.43275 -4.10246 
396 1 0.324435 0.188948 0.345828 0.00287779 0.00788089 -0.00601185 -0.288983 2.26203 3.24546 
594 1 0.471149 0.112346 0.322547 -0.00833848 0.00257233 0.00216209 -0.582909 6.11913 -2.84119 
46 1 0.566303 0.196988 0.328968 -0.00689964 0.00144898 0.00663686 4.37638 0.0188062 -0.207755 
111 1 0.659076 0.129861 0.319189 -0.00101909 -0.0117148 0.00150976 -3.05213 -1.32867 4.58516 
443 1 0.794669 0.101576 0.337107 0.00587306 0.0171128 -0.00669764 -3.38026 2.65289 -3.80995 
270 1 0.710673 0.195081 0.375187 0.00329941 -0.000915844 -0.00616084 0.561423 -2.7731 1.14487 
3 1 0.891821 0.107127 0.317297 0.00528011 -0.00184682 0.00305515 0.823719 1.13356 -0.310315 
89 1 0.966972 0.150948 0.34045 -0.0166765 0.000360531 -0.00691495 -1.94024 1.61864 1.67667 
341 1 0.18393 0.252499 0.349439 0.0028583 -0.00824545 0.00607775 2.75277 2.84262 0.242728 
560 1 0.262198 0.255175 0.399376 0.00237634 0.00628478 -0.00627867 4.59764 1.60349 -3.31136 
73 1 0.44448 0.214649 0.343698 -0.0027319 -0.00289789 -0.00463432 -7.20341 -11.8565 10.1244 
356 1 0.64857 0.248551 0.352694 0.0068168 0.00689514 0.00755044 -7.14344 -2.09853 0.991292 
336 1 0.813559 0.209724 0.376828 -0.00721113 0.00358464 -0.005744 -2.18919 4.71639 -6.14713 
403 1 0.903928 0.211396 0.320473 0.000871254 0.0103526 -0.00634427 -3.57773 1.0548 -4.00034 
50 1 0.0404171 0.334109 0.343283 -0.00228689 -0.00654722 0.00210279 16.3036 2.20895 -9.61665 
488 1 0.13023 0.384178 0.319292 0.00345394 -0.00110326 0.00645119 -0.790891 1.92981 1.67651 
374 1 0.192901 0.338366 0.37393 0.00185064 -0.00631515 -0.00508599 -1.34952 0.257158 0.43023 
354 1 0.334485 0.323267 0.355113 0.00788195 0.00832591 -0.0037418 -5.13665 -4.30349 -3.89181 
541 1 0.593908 0.360451 0.396909 0.00486692 0.00678074 -0.00452549 -1.5883 -0.593898 2.29064 
617 1 0.659444 0.398405 0.344956 0.0164907 -0.0025595 -0.00250271 -1.51264 11.031 -2.24748 
783 1 0.721331 0.324247 0.336243 -0.00166199 -0.0116319 -2.84023e-05 11.0986 -1.39017 -2.35903 
227 1 0.817066 0.343 0.307356 -0.00371549 -0.00244843 0.00964286 12.4944 -5.22801 11.1909 
683 1 0.989517 0.33591 0.390958 0.00650696 -0.00608559 -0.00605799 -11.4018 -5.49168 14.4255 
410 1 0.0527206 0.426638 0.336247 -0.003176 0.00395367 -0.00740122 4.80235 -8.75528 -5.04587 
471 1 0.0263397 0.495208 0.353142 0.00955012 0.000915936 -0.00428073 -4.4162 13.7042 5.65563 
551 1 0.189429 0.469326 0.371197 0.000992285 0.000579677 0.00187382 -3.48791 -5.62802 -0.0354131 
53 1 0.220342 0.403107 0.300074 0.0047972 0.0062095 0.00296278 1.11015 5.29884 5.11464 
407 1 0.303518 0.400471 0.319124 0.00529547 -0.00583488 0.00590044 2.50831 -0.0072434 1.18621 
104 1 0.729779 0.460317 0.319597 -0.00555662 -0.00403576 0.0109746 -8.52527 -6.8901 2.64097 
159 1 0.849764 0.405199 0.373291 -0.000113998 -0.0101309 0.0060163 -2.94713 2.34859 -0.0218098 
137 1 0.88092 0.492655 0.319291 -0.00020588 -0.00474404 -0.00361537 -4.0618 -3.52361 7.84031 
559 1 0.935887 0.477087 0.399764 -0.00556791 0.00966843 0.00908101 3.88499 17.265 -0.802044 
274 1 0.246063 0.0548196 0.453702 0.0052245 -0.000791932 0.00756893 -7.51357 -3.49582 3.89291 
243 1 0.397954 0.056736 0.412793 -0.000835533 0.00135838 0.00713875 -1.39824 4.6553 5.97638 
573 1 0.317223 0.0325141 0.492713 -0.000599362 0.00346215 0.0109018 6.0581 -0.659133 3.92756 
462 1 0.594588 0.0637169 0.493464 0.00270836 -0.0144582 0.00378141 5.96542 -3.88852 -1.24946 
296 1 0.68413 0.059319 0.442754 -0.008166 -0.0035904 -0.00255989 -6.52961 3.48832 -4.26859 
722 1 0.794687 0.0499126 0.45301 -0.00171887 -0.0035427 -0.00553586 1.05557 6.0623 -1.61307 
635 1 0.736943 0.00152573 0.480072 0.00559739 0.00286878 -0.00191288 -9.21605 0.308319 6.15654 
118 1 0.9786 0.0910523 0.417993 0.00397412 -0.00326183 -0.0192275 -5.39454 -3.98215 1.6198 
326 1 0.0736972 0.138189 0.453553 0.00169326 0.00860873 0.0048066 11.2069 6.02677 -0.497178 
37 1 0.310647 0.132212 0.476678 0.000602269 -0.00660492 0.0106007 1.78987 4.91976 6.48365 
508 1 0.394231 0.150246 0.456172 -0.00688364 -0.005602 0.00883174 0.977092 -5.99859 2.17974 
695 1 0.468953 0.185909 0.433438 0.0110543 0.00477388 0.0112921 3.14462 -1.64586 -4.53845 
256 1 0.543975 0.109459 0.408073 0.00543503 -0.00659368 0.000486894 0.912991 3.31938 -7.6783 
638 1 0.52 0.111681 0.486395 -0.000852978 0.00778932 0.00146748 -0.687767 5.2868 6.9211 
345 1 0.640856 0.151462 0.422369 0.00263614 -0.00648294 0.0034129 0.371793 -2.1011 -1.28716 
21 1 0.720739 0.142564 0.479009 0.00344332 -0.0102957 -0.00191005 -1.70351 -3.33088 -2.14717 
646 1 0.810175 0.132354 0.489067 -0.0106038 0.00567217 0.00019481 1.24855 2.20862 5.59364 
208 1 0.827252 0.13585 0.403597 -0.00272273 -0.0112231 -1.41693e-05 7.12089 -0.505406 1.54779 
714 1 0.938777 0.169822 0.435614 0.00420456 -0.00436595 0.000900206 -0.645865 1.46729 -3.06067 
516 1 0.142408 0.205812 0.439417 -8.68805e-05 -0.00200731 -0.0153832 -0.686844 -4.09447 0.924543 
72 1 0.238402 0.237922 0.496751 -0.00492816 -0.00239594 -0.00250739 -9.62436 1.56266 0.548745 
499 1 0.318863 0.234127 0.483034 0.00285504 -0.00382017 -0.000704283 -1.44223 1.58401 -1.18837 
55 1 0.49956 0.254476 0.474079 0.00696171 0.0136352 1.12198e-05 -10.4218 0.157448 4.32749 
41 1 0.566307 0.28147 0.43376 -0.0076903 0.00666985 0.0119733 4.92195 1.46558 -3.92556 
668 1 0.58947 0.20319 0.47034 -0.0018224 0.000215775 -0.0167533 2.64032 -4.52857 2.6039 
625 1 0.734628 0.222552 0.493934 -0.0157519 0.009936 -0.0101193 5.31673 1.41127 -0.148143 
83 1 0.0258734 0.370652 0.454834 0.00324619 0.0126322 -0.00125579 -0.91753 6.68952 10.1202 
770 1 0.0960378 0.361052 0.495177 0.000446434 0.00847967 -0.00645504 7.16507 -2.0346 4.33334 
434 1 0.175426 0.367521 0.455023 0.0111696 -0.00421799 0.00552227 -6.47589 1.63179 -8.83749 
756 1 0.688318 0.337039 0.406453 0.00444085 -0.0124973 0.0024112 -2.85625 -2.6251 10.5577 
662 1 0.778534 0.364694 0.482999 -0.00163485 -0.0153728 -0.00124875 -3.9374 -5.10269 4.32056 
752 1 0.789642 0.32652 0.410842 -0.00173886 -0.00447763 0.00541171 4.30213 -1.69703 -1.528 
563 1 0.88716 0.324516 0.409128 -0.00369708 -0.00147779 -0.00919186 -3.68232 -2.41326 -0.378635 
608 1 0.103158 0.442238 0.41941 0.00443525 0.00014175 0.00651704 3.33872 0.945999 -1.55381 
317 1 0.260161 0.452602 0.423932 0.00707684 -0.00366538 -0.00385956 -3.03992 4.02388 -2.64302 
63 1 0.756801 0.469074 0.404359 -0.00517409 -0.0108349 -0.0105944 2.27069 -1.61567 0.674634 
505 1 0.816633 0.431556 0.462283 -0.000384735 0.00035303 0.00488313 0.70155 4.1466 -4.39398 
644 1 0.938806 0.403723 0.41063 0.00529303 -0.00263353 -0.0187539 -3.79958 -3.8129 4.59791 
213 1 0.0206303 0.0403534 0.520216 0.00159049 -0.00182646 -0.000684995 0.829352 -0.585782 -5.36588 
660 1 0.0289552 0.0687563 0.594927 0.0101313 -0.00378418 -0.00653491 3.38743 5.07292 2.88767 
680 1 0.11443 0.0390692 0.542629 -0.0126458 -0.00771564 0.00606191 2.86595 -1.47888 2.71772 
307 1 0.200681 0.0739954 0.544699 0.000381971 0.000247444 -0.000421575 2.08335 -2.8154 -3.74283 
280 1 0.388413 0.0807481 0.546058 -0.00341645 -0.00376572 -0.00813157 -0.299998 -1.40361 -0.789555 
397 1 0.677684 0.0370321 0.545383 -0.00775145 -0.00786606 0.0116869 -1.24207 2.90846 3.6235 
614 1 0.799615 0.0784728 0.594488 -0.00294016 0.00827931 0.0122756 1.23279 1.09099 -4.82668 
220 1 0.892899 0.0277792 0.524656 -0.00284308 0.00227891 0.00304522 1.43968 0.245224 -2.3847 
602 1 0.829747 0.000523979 0.587153 -0.00316983 -0.00300756 0.000629816 -2.14457 -5.60278 2.18211 
348 1 0.0570682 0.175037 0.519468 -0.0158504 0.00259055 -0.00554362 -13.1 0.775914 6.31229 
233 1 0.283867 0.146786 0.570032 0.0128253 -0.00497719 0.0107148 -3.02087 -1.0324 -3.17242 
128 1 0.470303 0.109811 0.585202 -0.00646472 0.0016413 0.00875638 1.77923 5.13245 -6.09955 
486 1 0.560103 0.150577 0.59127 0.0053992 0.0102374 -0.0111067 -3.62008 -4.06702 -0.855511 
751 1 0.779271 0.169136 0.582351 -0.00116044 -0.00291821 0.00366651 -1.5166 -0.436629 -6.21671 
490 1 0.924135 0.133 0.506483 0.0101999 0.00258624 0.00813112 -6.73815 -5.96617 5.624 
315 1 0.912404 0.187351 0.574392 0.00194723 -0.00198796 0.0118667 2.38914 2.17451 2.7802 
603 1 0.116442 0.20848 0.558736 0.00722697 7.39652e-05 -0.00629623 0.169581 0.377632 10.2951 
693 1 0.127577 0.259498 0.502627 0.00380625 -0.00501702 0.0102253 6.10834 12.7975 -3.61687 
164 1 0.206369 0.284238 0.575293 0.000884933 0.00262117 -0.0103499 4.03472 -2.54811 -3.0845 
365 1 0.391645 0.217917 0.51553 -0.0136745 -0.00609066 -0.0020503 4.08667 -2.56682 2.30863 
189 1 0.411121 0.298442 0.521132 -0.0113923 0.00172489 0.00706035 0.0535933 2.88145 0.985923 
252 1 0.507207 0.22057 0.554335 -0.0026935 0.00992312 0.00092873 1.02258 -1.59199 0.230393 
138 1 0.613774 0.210027 0.558702 0.0130262 -0.00707767 -0.00172013 -3.53191 0.354091 -3.53957 
27 1 0.706748 0.288775 0.530926 0.00591775 0.00492141 -0.00406679 -0.259317 4.92626 0.352269 
258 1 0.821403 0.236203 0.50361 0.00347458 -0.00302415 0.00148477 -2.47347 -4.51384 4.69272 
148 1 0.981675 0.235481 0.549258 -0.00445341 0.0128523 -0.0123199 -0.0487921 -1.37635 -2.83146 
58 1 0.224275 0.36017 0.51814 -0.0134759 -0.00174245 -0.00659518 11.2959 -7.96614 0.599457 
611 1 0.307053 0.321681 0.555339 0.00608994 -0.0134986 0.00389274 -5.69982 -9.379 -4.73444 
606 1 0.36369 0.362712 0.592375 0.00396105 -0.00465292 0.00130268 4.73087 1.05082 -6.7378 
526 1 0.880788 0.352798 0.548911 0.00213088 -0.00563912 -0.00226488 -0.186252 -2.47519 3.44641 
94 1 0.965255 0.347216 0.542456 0.016741 -0.000498735 0.00450949 4.08542 1.99663 -6.11293 
797 1 0.069678 0.421713 0.588264 -0.00562361 0.00544202 -0.00714288 0.138519 -2.30682 -2.76823 
110 1 0.180879 0.4026 0.561854 0.000577682 -0.00139276 0.000110467 -11.6945 4.63506 10.3057 
172 1 0.256247 0.495 0.553036 0.00516799 -0.0164478 0.00916851 10.2448 -5.02918 -8.83779 
769 1 0.840568 0.481804 0.531896 -0.00603571 0.0105219 -0.00375516 -2.45886 2.78342 -3.1625 
310 1 0.966632 0.44485 0.505777 -0.0121315 -0.00806116 0.000718203 5.34688 -5.0826 -3.94643 
292 1 0.240155 0.0692394 0.675443 -0.00776148 -0.000278814 0.00511345 -3.47313 -0.624657 2.49682 
402 1 0.3646 0.0705452 0.666674 -0.00162957 0.00536707 -0.00307542 -4.59356 -22.7997 -5.86396 
91 1 0.40208 0.0136678 0.615961 0.0102519 -0.00236202 0.00199401 -4.12737 -0.641229 -7.09587 
558 1 0.474653 0.0930533 0.667794 0.00321069 0.010974 4.31461e-05 1.0217 1.94967 4.53508 
456 1 0.479453 0.0135955 0.638975 0.00723265 0.00176228 0.00145662 2.5382 -6.75744 2.40564 
30 1 0.596934 0.054191 0.640573 0.0100172 0.00658608 -0.00378859 -2.63897 5.98836 -2.33677 
495 1 0.66279 0.0146909 0.683201 0.00918455 -0.00172317 0.00105298 -1.84597 -6.85559 0.107245 
498 1 0.692768 0.0856159 0.687241 -0.00116492 -0.00186315 -0.000478611 4.77285 5.38131 -3.75841 
43 1 0.780261 0.0736926 0.67411 -0.0156767 0.00517797 -0.00232574 8.99645 -0.382343 5.18927 
494 1 0.874065 0.00453092 0.667796 0.00291678 -0.0073438 0.00398543 -3.25279 0.664961 4.27376 
69 1 0.918723 0.0614124 0.60775 0.00336026 -0.00551532 0.0032837 -0.383691 2.81204 -1.79615 
782 1 0.988512 0.0145395 0.643521 0.00351478 0.00389999 -0.00589077 -0.714432 -2.01606 2.27767 
399 1 0.225384 0.158102 0.649722 0.00728319 -0.00258927 0.005055 -2.60033 5.47405 -1.95227 
239 1 0.414634 0.172216 0.663821 0.000309873 -0.0138814 -0.000356778 8.86623 2.8914 -4.0047 
682 1 0.705617 0.122065 0.609442 -0.00965938 -0.00251168 -0.00772243 -6.27574 1.22759 -5.50584 
580 1 0.828596 0.158804 0.666574 -0.0051597 0.00366753 -0.00556306 0.375693 -0.59177 4.68706 
423 1 0.958989 0.161313 0.651423 -0.0147175 0.00280351 0.0082137 1.97322 -15.9156 -14.5952 
144 1 0.0388003 0.242683 0.61271 0.0100848 0.00757267 0.00535079 5.63388 -3.87776 1.97879 
261 1 0.0898025 0.220216 0.692641 -0.000673536 0.0035557 -0.0102905 -5.23986 0.627927 2.27691 
262 1 0.281099 0.229014 0.617749 0.0072504 -0.003758 -0.00316556 -3.76306 2.83997 -5.25392 
794 1 0.402701 0.254363 0.649642 -4.56139e-05 0.000852823 0.000439372 1.9932 -3.86009 -3.2889 
441 1 0.670163 0.205099 0.619378 0.00154771 -0.00876929 -0.00182045 4.61595 -3.0182 6.28582 
575 1 0.815233 0.244047 0.60826 0.00364932 0.00808969 -0.00188009 6.26989 0.319681 -1.16697 
730 1 0.899905 0.295131 0.624302 0.00180566 -0.00413937 0.00498794 -3.66245 0.614851 -5.26377 
737 1 0.945049 0.209415 0.69989 0.00679108 -0.00292686 -0.00243496 -12.7388 10.6528 14.8318 
5 1 0.971247 0.289986 0.672603 0.0069408 -0.0104196 -0.00149621 0.073964 -3.09059 -15.6407 
251 1 0.0242569 0.32649 0.602328 0.000820153 0.00185014 0.0108335 4.73437 6.96884 0.611485 
599 1 0.196379 0.308991 0.682497 -0.00416651 -0.00521996 -0.0127859 -3.93024 -4.83595 -0.857394 
300 1 0.138833 0.336 0.609472 -0.00130805 0.00670129 0.014202 0.884876 -0.331641 -0.707861 
364 1 0.123253 0.399246 0.663866 0.00182543 -0.00558426 0.00380668 -6.61148 -3.5767 -1.86771 
748 1 0.376032 0.327624 0.665668 -0.00602854 6.62894e-05 0.000263781 -5.00876 0.0729643 3.92116 
670 1 0.0237514 0.444899 0.664219 -0.00841076 0.00484003 0.0031324 3.66292 0.447488 3.0323 
244 1 0.203995 0.478662 0.604091 -0.00825342 0.0111086 -0.00332308 -9.23343 -6.49584 6.10989 
791 1 0.298102 0.424452 0.608783 0.00441425 -0.0076522 0.00539256 2.61793 0.387281 3.23516 
206 1 0.256827 0.470516 0.685993 -0.00338411 -0.00458202 0.00480682 5.93764 2.54788 -2.77825 
168 1 0.350367 0.404888 0.690843 -0.0133155 -0.0063927 -0.00225415 -3.34516 7.97631 3.81813 
491 1 0.444222 0.439366 0.679975 -0.00201282 -0.00429891 0.00294509 -7.62534 -4.41326 0.623884 
214 1 0.0893649 0.0492598 0.770636 -0.00413402 0.00301009 0.0150232 -3.24527 -1.6029 4.09178 
750 1 0.183203 0.0626497 0.748247 0.00312446 0.00232189 -0.000468901 -1.13962 10.2937 -5.4101 
754 1 0.230433 0.00956139 0.785008 -0.00489083 -0.00101558 -0.0134778 1.21186 -4.77766 -1.19401 
268 1 0.397763 0.0244476 0.756752 0.000832107 0.0196633 0.00697357 -3.08705 2.77472 2.46987 
435 1 0.608876 0.0292956 0.752334 0.0042703 0.00787248 -0.00581898 6.1135 -5.78712 5.16422 
23 1 0.741356 0.0776408 0.766148 -0.00419191 -0.00444842 -0.0082634 0.765678 1.04213 9.86997 
198 1 0.839286 0.0543035 0.757178 -0.00273097 -0.00211952 -0.00170923 0.814502 -11.4431 -10.5359 
350 1 0.941995 0.0797496 0.703478 -0.00111001 -0.00310949 0.00463429 -3.52858 3.18349 1.93758 
744 1 0.965527 0.0508198 0.785443 0.00166872 0.00283793 -0.00418732 -0.216747 -3.39709 0.719443 
392 1 0.252526 0.113982 0.78904 0.00134645 0.00133364 -0.0146893 -2.55171 10.593 -5.10918 
319 1 0.28544 0.144118 0.709405 0.00120222 -0.000592869 0.00456864 3.87082 -0.921217 6.78846 
785 1 0.374195 0.124893 0.708961 0.00332484 0.0166681 0.000954002 -10.7782 8.34931 10.5622 
707 1 0.376813 0.146873 0.789787 -0.00349853 -0.00514211 -0.00151122 -4.1951 2.6263 4.72656 
444 1 0.453501 0.186773 0.746681 0.0137478 -0.00612212 0.000480807 3.52578 7.3827 -1.08398 
166 1 0.532395 0.103219 0.738753 -0.00209606 0.00377033 0.0106166 -10.4558 -9.47229 -0.939415 
562 1 0.592583 0.136441 0.709636 0.00651666 0.0136028 -0.0057074 7.03277 9.02347 -6.7104 
579 1 0.645578 0.102996 0.76358 0.0068642 0.000242784 -0.0182676 0.434877 5.97573 7.26708 
743 1 0.862717 0.128891 0.758424 -0.00246969 -0.00524005 -0.00100767 4.93769 10.7068 -4.27704 
250 1 0.0865664 0.224578 0.797247 0.00690749 -0.00240218 0.0010262 -12.0493 -2.87846 -4.94844 
718 1 0.135435 0.28492 0.781893 -0.0209687 0.00898738 0.00862642 6.41777 4.09356 -5.94518 
230 1 0.170209 0.214455 0.702948 -0.0109185 -2.53822e-05 -0.0124675 6.1014 5.73309 -1.03551 
747 1 0.580736 0.225459 0.748904 0.00158708 -0.0149761 -0.00250535 9.53387 -13.4408 -22.296 
36 1 0.507951 0.234985 0.715402 0.0102588 -0.00479028 -0.0128779 -0.525469 0.0101261 -6.28597 
654 1 0.674934 0.209384 0.724296 0.00845728 -0.00321875 -0.0119283 -6.14505 -2.2706 -5.4949 
641 1 0.829165 0.292352 0.774602 0.0167497 0.00453539 -0.00424751 -1.92276 0.933435 11.9148 
501 1 0.861506 0.268092 0.702001 0.000957142 -0.00443045 0.00174931 0.582915 -10.8138 -7.15167 
432 1 0.990247 0.254001 0.75753 0.00542025 -0.00334648 -0.00233387 7.12768 -3.75354 15.5154 
253 1 0.0785281 0.355841 0.773613 0.00788064 -0.00905224 0.00930703 4.91915 5.568 -8.39419 